
     Program PWSCF v.5.3.0 (svn rev. 11974) starts on 10Aug2016 at 14:36:13 

     This program is part of the open-source Quantum ESPRESSO suite
     for quantum simulation of materials; please cite
         "P. Giannozzi et al., J. Phys.:Condens. Matter 21 395502 (2009);
          URL http://www.quantum-espresso.org", 
     in publications or presentations arising from this work. More details at
     http://www.quantum-espresso.org/quote

     Parallel version (MPI), running on     8 processors
     R & G space division:  proc/nbgrp/npool/nimage =       8
     Waiting for input...
     Reading input from standard input
     Message from routine read_cards :
     DEPRECATED: no units specified in CELL_PARAMETERS card

     Current dimensions of program PWSCF are:
     Max number of different atomic species (ntypx) = 10
     Max number of k-points (npk) =  40000
     Max angular momentum in pseudopotentials (lmaxx) =  3
               file o.UPF: wavefunction(s)  2P renormalized
               file mg.UPF: wavefunction(s)  2S renormalized

     Subspace diagonalization in iterative solution of the eigenvalue problem:
     a serial algorithm will be used


     Parallelization info
     --------------------
     sticks:   dense  smooth     PW     G-vecs:    dense   smooth      PW
     Min         160      63     20                 3850      970     175
     Max         161      64     21                 3855      979     178
     Sum        1285     511    163                30827     7799    1411


     Title: 
     crystal                                                                    


     bravais-lattice index     =            0
     lattice parameter (alat)  =       1.0000  a.u.
     unit-cell volume          =     124.4366 (a.u.)^3
     number of atoms/cell      =            2
     number of atomic types    =            2
     number of electrons       =        16.00
     number of Kohn-Sham states=            8
     kinetic-energy cutoff     =      60.0000  Ry
     charge density cutoff     =     600.0000  Ry
     convergence threshold     =      1.0E-08
     mixing beta               =       0.7000
     number of iterations used =            8  plain     mixing
     Exchange-correlation      =  SLA  PW   B86B PBC ( 1  4 22  4 0 0)
     nstep                     =           50


     celldm(1)=   1.000000  celldm(2)=   0.000000  celldm(3)=   0.000000
     celldm(4)=   0.000000  celldm(5)=   0.000000  celldm(6)=   0.000000

     crystal axes: (cart. coord. in units of alat)
               a(1) = (   3.962531  -3.962531  -0.000000 )  
               a(2) = (  -3.962531   0.000000   3.962531 )  
               a(3) = (   0.000000  -3.962531  -3.962531 )  

     reciprocal axes: (cart. coord. in units 2 pi/alat)
               b(1) = (  0.126182 -0.126182  0.126182 )  
               b(2) = ( -0.126182 -0.126182  0.126182 )  
               b(3) = ( -0.126182 -0.126182 -0.126182 )  


     PseudoPot. # 1 for  O read from file:
     ./o.UPF
     MD5 check sum: 13b81e899dae67e81c32dda3d3100adb
     Pseudo is Projector augmented-wave + core cor, Zval =  6.0
     Generated using "atomic" code by A. Dal Corso  (Quantum ESPRESSO distribution)
     Shape of augmentation charge: BESSEL
     Using radial grid of 1095 points,  4 beta functions with: 
                l(1) =   0
                l(2) =   0
                l(3) =   1
                l(4) =   1
     Q(r) pseudized with 0 coefficients 


     PseudoPot. # 2 for Mg read from file:
     ./mg.UPF
     MD5 check sum: 3731818b017de8b6cd193d3340279109
     Pseudo is Projector augmented-wave + core cor, Zval = 10.0
     Generated using "atomic" code by A. Dal Corso  (Quantum ESPRESSO distribution)
     Shape of augmentation charge: PSQ
     Using radial grid of 1129 points,  4 beta functions with: 
                l(1) =   0
                l(2) =   0
                l(3) =   1
                l(4) =   1
     Q(r) pseudized with 0 coefficients 


     atomic species   valence    mass     pseudopotential
        o              6.00    15.99940      O( 1.00)
        mg            10.00    24.30500     Mg( 1.00)

     48 Sym. Ops., with inversion, found



   Cartesian axes

     site n.     atom                  positions (alat units)
         1           mg  tau(   1) = (   0.0000000   0.0000000   0.0000000  )
         2           o   tau(   2) = (   0.0000000  -3.9625313   0.0000000  )

     number of k points=    10
                       cart. coord. in units 2pi/alat
        k(    1) = (  -0.0157727  -0.0473182   0.0157727), wk =   0.1875000
        k(    2) = (  -0.0473182  -0.0788637  -0.0157727), wk =   0.3750000
        k(    3) = (  -0.0473182  -0.0788637   0.0473182), wk =   0.1875000
        k(    4) = (  -0.0788637  -0.1104092   0.0157727), wk =   0.3750000
        k(    5) = (   0.0157727  -0.0157727   0.1104092), wk =   0.1875000
        k(    6) = (   0.0473182   0.0157727  -0.0473182), wk =   0.1875000
        k(    7) = (   0.0157727  -0.0157727  -0.0788637), wk =   0.1875000
        k(    8) = (   0.0157727  -0.0157727  -0.0157727), wk =   0.0625000
        k(    9) = (  -0.0473182  -0.1419547   0.0473182), wk =   0.1875000
        k(   10) = (   0.0473182  -0.0473182  -0.0473182), wk =   0.0625000

     Dense  grid:    30827 G-vectors     FFT dimensions: (  45,  45,  45)

     Smooth grid:     7799 G-vectors     FFT dimensions: (  27,  27,  27)

     Largest allocated arrays     est. size (Mb)     dimensions
        Kohn-Sham Wavefunctions         0.02 Mb     (     127,    8)
        NL pseudopotentials             0.03 Mb     (     127,   16)
        Each V/rho on FFT grid          0.19 Mb     (   12150)
        Each G-vector array             0.03 Mb     (    3851)
        G-vector shells                 0.03 Mb     (    3851)
     Largest temporary arrays     est. size (Mb)     dimensions
        Auxiliary wavefunctions         0.06 Mb     (     127,   32)
        Each subspace H/S matrix        0.02 Mb     (      32,   32)
        Each <psi_i|beta_j> matrix      0.00 Mb     (      16,    8)
        Arrays for rho mixing           1.48 Mb     (   12150,    8)

     Check: negative/imaginary core charge=   -0.000004    0.000000

     Initial potential from superposition of free atoms

     starting charge   15.99910, renormalised to   16.00000
     Starting wfc are   12 randomized atomic wfcs
     Checking if some PAW data can be deallocated... 

     total cpu time spent up to now is        1.2 secs

     per-process dynamical memory:    11.3 Mb

     Self-consistent Calculation

     iteration #  1     ecut=    60.00 Ry     beta=0.70
     Davidson diagonalization with overlap
     ethr =  1.00E-02,  avg # of iterations =  1.5

     total cpu time spent up to now is        1.4 secs

     total energy              =    -183.41204062 Ry
     Harris-Foulkes estimate   =    -183.74218344 Ry
     estimated scf accuracy    <       0.43337852 Ry

     iteration #  2     ecut=    60.00 Ry     beta=0.70
     Davidson diagonalization with overlap
     ethr =  2.71E-03,  avg # of iterations =  4.1

     total cpu time spent up to now is        1.5 secs

     total energy              =    -183.54293748 Ry
     Harris-Foulkes estimate   =    -183.76987357 Ry
     estimated scf accuracy    <       0.46153232 Ry

     iteration #  3     ecut=    60.00 Ry     beta=0.70
     Davidson diagonalization with overlap
     ethr =  2.71E-03,  avg # of iterations =  2.0

     total cpu time spent up to now is        1.7 secs

     total energy              =    -183.63240488 Ry
     Harris-Foulkes estimate   =    -183.63270250 Ry
     estimated scf accuracy    <       0.00228066 Ry

     iteration #  4     ecut=    60.00 Ry     beta=0.70
     Davidson diagonalization with overlap
     ethr =  1.43E-05,  avg # of iterations =  4.2

     total cpu time spent up to now is        1.9 secs

     total energy              =    -183.63684076 Ry
     Harris-Foulkes estimate   =    -183.63714732 Ry
     estimated scf accuracy    <       0.00078242 Ry

     iteration #  5     ecut=    60.00 Ry     beta=0.70
     Davidson diagonalization with overlap
     ethr =  4.89E-06,  avg # of iterations =  2.0

     total cpu time spent up to now is        2.0 secs

     total energy              =    -183.63685711 Ry
     Harris-Foulkes estimate   =    -183.63690468 Ry
     estimated scf accuracy    <       0.00010173 Ry

     iteration #  6     ecut=    60.00 Ry     beta=0.70
     Davidson diagonalization with overlap
     ethr =  6.36E-07,  avg # of iterations =  3.0

     total cpu time spent up to now is        2.2 secs

     total energy              =    -183.63689941 Ry
     Harris-Foulkes estimate   =    -183.63690596 Ry
     estimated scf accuracy    <       0.00001173 Ry

     iteration #  7     ecut=    60.00 Ry     beta=0.70
     Davidson diagonalization with overlap
     ethr =  7.33E-08,  avg # of iterations =  3.0

     total cpu time spent up to now is        2.3 secs

     total energy              =    -183.63690128 Ry
     Harris-Foulkes estimate   =    -183.63690129 Ry
     estimated scf accuracy    <       0.00000011 Ry

     iteration #  8     ecut=    60.00 Ry     beta=0.70
     Davidson diagonalization with overlap
     ethr =  7.03E-10,  avg # of iterations =  2.0

     total cpu time spent up to now is        2.5 secs

     End of self-consistent calculation

          k =-0.0158-0.0473 0.0158 (   968 PWs)   bands (ev):

   -64.3826 -31.1694 -31.1423 -31.1403  -8.7690   5.7033   7.4915   7.4983

          k =-0.0473-0.0789-0.0158 (   980 PWs)   bands (ev):

   -64.3786 -31.2020 -31.1624 -31.1473  -8.0244   4.2473   6.2524   7.1037

          k =-0.0473-0.0789 0.0473 (   982 PWs)   bands (ev):

   -64.3790 -31.2171 -31.1501 -31.1458  -7.9637   3.5917   6.8246   7.2061

          k =-0.0789-0.1104 0.0158 (   981 PWs)   bands (ev):

   -64.3766 -31.1975 -31.1777 -31.1589  -7.7584   4.4668   5.4912   6.5929

          k = 0.0158-0.0158 0.1104 (   979 PWs)   bands (ev):

   -64.3765 -31.2046 -31.1675 -31.1604  -7.8083   4.1042   6.2536   6.7252

          k = 0.0473 0.0158-0.0473 (   968 PWs)   bands (ev):

   -64.3800 -31.1898 -31.1495 -31.1379  -8.4474   4.7785   6.9887   7.5552

          k = 0.0158-0.0158-0.0789 (   987 PWs)   bands (ev):

   -64.3810 -31.1927 -31.1550 -31.1531  -8.2028   4.5902   6.7844   7.0246

          k = 0.0158-0.0158-0.0158 (   959 PWs)   bands (ev):

   -64.3846 -31.1469 -31.1345 -31.1345  -9.1691   7.0247   7.8768   7.8768

          k =-0.0473-0.1420 0.0473 (   977 PWs)   bands (ev):

   -64.3769 -31.2032 -31.1734 -31.1488  -7.8371   4.2022   5.6003   7.0726

          k = 0.0473-0.0473-0.0473 (   984 PWs)   bands (ev):

   -64.3813 -31.2109 -31.1413 -31.1413  -8.2215   3.8766   7.4062   7.4062

     highest occupied level (ev):     7.8768

!    total energy              =    -183.63690130 Ry
     Harris-Foulkes estimate   =    -183.63690130 Ry
     estimated scf accuracy    <          9.1E-09 Ry

     total all-electron energy =      -551.749498 Ry

     The total energy is the sum of the following terms:

     one-electron contribution =     -87.44803320 Ry
     hartree contribution      =      49.27014681 Ry
     xc contribution           =     -25.45976288 Ry
     ewald contribution        =     -95.18021717 Ry
     one-center paw contrib.   =     -24.81903487 Ry

     convergence has been achieved in   8 iterations

     Forces acting on atoms (Ry/au):

     atom    1 type  2   force =     0.00000000    0.00000000    0.00000000
     atom    2 type  1   force =    -0.00000000    0.00000000   -0.00000000

     Total force =     0.000000     Total SCF correction =     0.000000


     entering subroutine stress ...

          total   stress  (Ry/bohr**3)                   (kbar)     P=    0.06
   0.00000038  -0.00000000  -0.00000000          0.06     -0.00     -0.00
  -0.00000000   0.00000038   0.00000000         -0.00      0.06      0.00
  -0.00000000   0.00000000   0.00000038         -0.00      0.00      0.06


     BFGS Geometry Optimization

     bfgs converged in   1 scf cycles and   0 bfgs steps
     (criteria: energy <  1.0E-04, force <  1.0E-03, cell <  5.0E-01)

     End of BFGS Geometry Optimization

     Final enthalpy =    -183.6369012984 Ry
Begin final coordinates
     new unit-cell volume =    124.43660 a.u.^3 (    18.43960 Ang^3 )

CELL_PARAMETERS (alat=  1.00000000)
   3.962531347  -3.962531347  -0.000000000
  -3.962531347   0.000000000   3.962531347
   0.000000000  -3.962531347  -3.962531347

ATOMIC_POSITIONS (crystal)
mg       0.000000000   0.000000000  -0.000000000
o        0.500000000   0.500000000   0.500000000
End final coordinates



     A final scf calculation at the relaxed structure.
     The G-vectors are recalculated for the final unit cell
     Results may differ from those at the preceding step.

     Parallelization info
     --------------------
     sticks:   dense  smooth     PW     G-vecs:    dense   smooth      PW
     Min         160      63     20                 3850      970     175
     Max         161      64     21                 3855      979     178
     Sum        1285     511    163                30827     7799    1411


     Title: 
     crystal                                                                    


     bravais-lattice index     =            0
     lattice parameter (alat)  =       1.0000  a.u.
     unit-cell volume          =     124.4366 (a.u.)^3
     number of atoms/cell      =            2
     number of atomic types    =            2
     number of electrons       =        16.00
     number of Kohn-Sham states=            8
     kinetic-energy cutoff     =      60.0000  Ry
     charge density cutoff     =     600.0000  Ry
     convergence threshold     =      1.0E-08
     mixing beta               =       0.7000
     number of iterations used =            8  plain     mixing
     Exchange-correlation      =  SLA  PW   B86B PBC ( 1  4 22  4 0 0)

     celldm(1)=   1.000000  celldm(2)=   0.000000  celldm(3)=   0.000000
     celldm(4)=   0.000000  celldm(5)=   0.000000  celldm(6)=   0.000000

     crystal axes: (cart. coord. in units of alat)
               a(1) = (   3.962531  -3.962531  -0.000000 )  
               a(2) = (  -3.962531   0.000000   3.962531 )  
               a(3) = (   0.000000  -3.962531  -3.962531 )  

     reciprocal axes: (cart. coord. in units 2 pi/alat)
               b(1) = (  0.126182 -0.126182  0.126182 )  
               b(2) = ( -0.126182 -0.126182  0.126182 )  
               b(3) = ( -0.126182 -0.126182 -0.126182 )  


     PseudoPot. # 1 for  O read from file:
     ./o.UPF
     MD5 check sum: 13b81e899dae67e81c32dda3d3100adb
     Pseudo is Projector augmented-wave + core cor, Zval =  6.0
     Generated using "atomic" code by A. Dal Corso  (Quantum ESPRESSO distribution)
     Shape of augmentation charge: BESSEL
     Using radial grid of 1095 points,  4 beta functions with: 
                l(1) =   0
                l(2) =   0
                l(3) =   1
                l(4) =   1
     Q(r) pseudized with 0 coefficients 


     PseudoPot. # 2 for Mg read from file:
     ./mg.UPF
     MD5 check sum: 3731818b017de8b6cd193d3340279109
     Pseudo is Projector augmented-wave + core cor, Zval = 10.0
     Generated using "atomic" code by A. Dal Corso  (Quantum ESPRESSO distribution)
     Shape of augmentation charge: PSQ
     Using radial grid of 1129 points,  4 beta functions with: 
                l(1) =   0
                l(2) =   0
                l(3) =   1
                l(4) =   1
     Q(r) pseudized with 0 coefficients 


     atomic species   valence    mass     pseudopotential
        o              6.00    15.99940      O( 1.00)
        mg            10.00    24.30500     Mg( 1.00)

     48 Sym. Ops., with inversion, found



   Cartesian axes

     site n.     atom                  positions (alat units)
         1           mg  tau(   1) = (   0.0000000   0.0000000   0.0000000  )
         2           o   tau(   2) = (   0.0000000  -3.9625313   0.0000000  )

     number of k points=    10
                       cart. coord. in units 2pi/alat
        k(    1) = (  -0.0157727  -0.0473182   0.0157727), wk =   0.1875000
        k(    2) = (  -0.0473182  -0.0788637  -0.0157727), wk =   0.3750000
        k(    3) = (  -0.0473182  -0.0788637   0.0473182), wk =   0.1875000
        k(    4) = (  -0.0788637  -0.1104092   0.0157727), wk =   0.3750000
        k(    5) = (   0.0157727  -0.0157727   0.1104092), wk =   0.1875000
        k(    6) = (   0.0473182   0.0157727  -0.0473182), wk =   0.1875000
        k(    7) = (   0.0157727  -0.0157727  -0.0788637), wk =   0.1875000
        k(    8) = (   0.0157727  -0.0157727  -0.0157727), wk =   0.0625000
        k(    9) = (  -0.0473182  -0.1419547   0.0473182), wk =   0.1875000
        k(   10) = (   0.0473182  -0.0473182  -0.0473182), wk =   0.0625000

     Dense  grid:    30827 G-vectors     FFT dimensions: (  45,  45,  45)

     Smooth grid:     7799 G-vectors     FFT dimensions: (  27,  27,  27)

     Largest allocated arrays     est. size (Mb)     dimensions
        Kohn-Sham Wavefunctions         0.02 Mb     (     127,    8)
        NL pseudopotentials             0.03 Mb     (     127,   16)
        Each V/rho on FFT grid          0.19 Mb     (   12150)
        Each G-vector array             0.03 Mb     (    3851)
        G-vector shells                 0.00 Mb     (     321)
     Largest temporary arrays     est. size (Mb)     dimensions
        Auxiliary wavefunctions         0.06 Mb     (     127,   32)
        Each subspace H/S matrix        0.02 Mb     (      32,   32)
        Each <psi_i|beta_j> matrix      0.00 Mb     (      16,    8)
        Arrays for rho mixing           1.48 Mb     (   12150,    8)

     Check: negative/imaginary core charge=   -0.000004    0.000000

     Initial potential from superposition of free atoms

     starting charge   15.99910, renormalised to   16.00000
     Starting wfc are   12 randomized atomic wfcs
     Checking if some PAW data can be deallocated... 

     Writing output data file crystal.save

     total cpu time spent up to now is        4.8 secs

     per-process dynamical memory:    11.7 Mb

     Self-consistent Calculation

     iteration #  1     ecut=    60.00 Ry     beta=0.70
     Davidson diagonalization with overlap
     ethr =  1.00E-06,  avg # of iterations =  8.0

     total cpu time spent up to now is        5.1 secs

     total energy              =    -183.45464144 Ry
     Harris-Foulkes estimate   =    -183.75792449 Ry
     estimated scf accuracy    <       0.39661170 Ry

     iteration #  2     ecut=    60.00 Ry     beta=0.70
     Davidson diagonalization with overlap
     ethr =  2.48E-03,  avg # of iterations =  3.1

     total cpu time spent up to now is        5.2 secs

     total energy              =    -183.55958465 Ry
     Harris-Foulkes estimate   =    -183.74363008 Ry
     estimated scf accuracy    <       0.36441193 Ry

     iteration #  3     ecut=    60.00 Ry     beta=0.70
     Davidson diagonalization with overlap
     ethr =  2.28E-03,  avg # of iterations =  2.0

     total cpu time spent up to now is        5.4 secs

     total energy              =    -183.63592201 Ry
     Harris-Foulkes estimate   =    -183.63588380 Ry
     estimated scf accuracy    <       0.00171088 Ry

     iteration #  4     ecut=    60.00 Ry     beta=0.70
     Davidson diagonalization with overlap
     ethr =  1.07E-05,  avg # of iterations =  4.0

     total cpu time spent up to now is        5.6 secs

     total energy              =    -183.63688230 Ry
     Harris-Foulkes estimate   =    -183.63692129 Ry
     estimated scf accuracy    <       0.00007273 Ry

     iteration #  5     ecut=    60.00 Ry     beta=0.70
     Davidson diagonalization with overlap
     ethr =  4.55E-07,  avg # of iterations =  2.8

     total cpu time spent up to now is        5.7 secs

     total energy              =    -183.63689927 Ry
     Harris-Foulkes estimate   =    -183.63690262 Ry
     estimated scf accuracy    <       0.00001327 Ry

     iteration #  6     ecut=    60.00 Ry     beta=0.70
     Davidson diagonalization with overlap
     ethr =  8.29E-08,  avg # of iterations =  2.1

     total cpu time spent up to now is        5.9 secs

     total energy              =    -183.63690119 Ry
     Harris-Foulkes estimate   =    -183.63690135 Ry
     estimated scf accuracy    <       0.00000021 Ry

     iteration #  7     ecut=    60.00 Ry     beta=0.70
     Davidson diagonalization with overlap
     ethr =  1.34E-09,  avg # of iterations =  3.4

     total cpu time spent up to now is        6.0 secs

     total energy              =    -183.63690128 Ry
     Harris-Foulkes estimate   =    -183.63690133 Ry
     estimated scf accuracy    <       0.00000009 Ry

     iteration #  8     ecut=    60.00 Ry     beta=0.70
     Davidson diagonalization with overlap
     ethr =  5.68E-10,  avg # of iterations =  3.1

     total cpu time spent up to now is        6.2 secs

     End of self-consistent calculation

          k =-0.0158-0.0473 0.0158 (   968 PWs)   bands (ev):

   -64.3829 -31.1698 -31.1427 -31.1407  -8.7691   5.7033   7.4915   7.4982

          k =-0.0473-0.0789-0.0158 (   980 PWs)   bands (ev):

   -64.3790 -31.2024 -31.1628 -31.1477  -8.0244   4.2473   6.2524   7.1037

          k =-0.0473-0.0789 0.0473 (   982 PWs)   bands (ev):

   -64.3793 -31.2175 -31.1505 -31.1463  -7.9637   3.5917   6.8246   7.2061

          k =-0.0789-0.1104 0.0158 (   981 PWs)   bands (ev):

   -64.3769 -31.1979 -31.1781 -31.1593  -7.7584   4.4668   5.4911   6.5929

          k = 0.0158-0.0158 0.1104 (   979 PWs)   bands (ev):

   -64.3769 -31.2051 -31.1679 -31.1609  -7.8083   4.1042   6.2536   6.7252

          k = 0.0473 0.0158-0.0473 (   968 PWs)   bands (ev):

   -64.3803 -31.1902 -31.1500 -31.1384  -8.4474   4.7785   6.9887   7.5552

          k = 0.0158-0.0158-0.0789 (   987 PWs)   bands (ev):

   -64.3813 -31.1931 -31.1554 -31.1535  -8.2028   4.5902   6.7844   7.0246

          k = 0.0158-0.0158-0.0158 (   959 PWs)   bands (ev):

   -64.3850 -31.1473 -31.1350 -31.1350  -9.1691   7.0247   7.8768   7.8768

          k =-0.0473-0.1420 0.0473 (   977 PWs)   bands (ev):

   -64.3772 -31.2036 -31.1738 -31.1492  -7.8371   4.2022   5.6003   7.0726

          k = 0.0473-0.0473-0.0473 (   984 PWs)   bands (ev):

   -64.3816 -31.2113 -31.1417 -31.1417  -8.2215   3.8766   7.4062   7.4062

     highest occupied level (ev):     7.8768

!    total energy              =    -183.63690130 Ry
     Harris-Foulkes estimate   =    -183.63690130 Ry
     estimated scf accuracy    <          4.4E-09 Ry

     total all-electron energy =      -551.749498 Ry

     The total energy is the sum of the following terms:

     one-electron contribution =     -87.44797288 Ry
     hartree contribution      =      49.27005285 Ry
     xc contribution           =     -25.45973943 Ry
     ewald contribution        =     -95.18021717 Ry
     one-center paw contrib.   =     -24.81902467 Ry

     convergence has been achieved in   8 iterations

     Forces acting on atoms (Ry/au):

     atom    1 type  2   force =    -0.00000000   -0.00000000    0.00000000
     atom    2 type  1   force =     0.00000000    0.00000000   -0.00000000

     Total force =     0.000000     Total SCF correction =     0.000000


     entering subroutine stress ...

          total   stress  (Ry/bohr**3)                   (kbar)     P=   -0.04
  -0.00000029   0.00000000   0.00000000         -0.04      0.00      0.00
   0.00000000  -0.00000029  -0.00000000          0.00     -0.04     -0.00
   0.00000000  -0.00000000  -0.00000029          0.00     -0.00     -0.04


     Writing output data file crystal.save

     init_run     :      1.08s CPU      1.13s WALL (       2 calls)
     electrons    :      2.54s CPU      2.61s WALL (       2 calls)
     forces       :      0.66s CPU      0.67s WALL (       2 calls)
     stress       :      1.66s CPU      1.67s WALL (       2 calls)

     Called by init_run:
     wfcinit      :      0.05s CPU      0.06s WALL (       2 calls)
     potinit      :      0.32s CPU      0.33s WALL (       2 calls)

     Called by electrons:
     c_bands      :      1.06s CPU      1.07s WALL (      16 calls)
     sum_band     :      0.40s CPU      0.42s WALL (      16 calls)
     v_of_rho     :      0.25s CPU      0.26s WALL (      18 calls)
     newd         :      0.27s CPU      0.28s WALL (      18 calls)
     PAW_pot      :      0.61s CPU      0.61s WALL (      18 calls)
     mix_rho      :      0.03s CPU      0.02s WALL (      16 calls)

     Called by c_bands:
     init_us_2    :      0.01s CPU      0.02s WALL (     380 calls)
     cegterg      :      1.04s CPU      1.04s WALL (     160 calls)

     Called by sum_band:
     sum_band:bec :      0.00s CPU      0.00s WALL (     160 calls)
     addusdens    :      0.24s CPU      0.24s WALL (      16 calls)

     Called by *egterg:
     h_psi        :      0.82s CPU      0.82s WALL (     683 calls)
     s_psi        :      0.01s CPU      0.03s WALL (     683 calls)
     g_psi        :      0.00s CPU      0.00s WALL (     503 calls)
     cdiaghg      :      0.09s CPU      0.11s WALL (     663 calls)

     Called by h_psi:
     add_vuspsi   :      0.02s CPU      0.03s WALL (     683 calls)

     General routines
     calbec       :      0.05s CPU      0.05s WALL (     943 calls)
     fft          :      0.19s CPU      0.18s WALL (     330 calls)
     ffts         :      0.02s CPU      0.01s WALL (      34 calls)
     fftw         :      0.76s CPU      0.76s WALL (    9928 calls)
     interpolate  :      0.03s CPU      0.04s WALL (      34 calls)
     davcio       :      0.00s CPU      0.00s WALL (      20 calls)

     Parallel routines
     fft_scatter  :      0.19s CPU      0.18s WALL (   10292 calls)

     PWSCF        :     6.42s CPU         6.59s WALL


   This run was terminated on:  14:36:20  10Aug2016            

=------------------------------------------------------------------------------=
   JOB DONE.
=------------------------------------------------------------------------------=
